 CRYSTAL
 PRIMVEC
    0.000000000    2.024700000    2.024700000
    2.024700000    0.000000000    2.024700000
    2.024700000    2.024700000    0.000000000
 PRIMCOORD
           1           1
Al        0.000000000    0.000000000    0.000000000
BEGIN_BLOCK_DATAGRID_3D
3D_PWSCF
DATAGRID_3D_UNKNOWN
          21          21          21
  0.000000  0.000000  0.000000
    0.000000    2.024700    2.024700
    2.024700    0.000000    2.024700
    2.024700    2.024700    0.000000
 -0.478080E+01 -0.475948E+01 -0.465019E+01 -0.427482E+01 -0.352749E+01 -0.250792E+01
 -0.147892E+01 -0.719950E+00 -0.355001E+00 -0.259606E+00 -0.231807E+00 -0.259606E+00
 -0.355001E+00 -0.719950E+00 -0.147892E+01 -0.250792E+01 -0.352749E+01 -0.427482E+01
 -0.465019E+01 -0.475948E+01 -0.478080E+01 -0.475948E+01 -0.469693E+01 -0.445023E+01
 -0.386307E+01 -0.295236E+01 -0.190155E+01 -0.100995E+01 -0.468369E+00 -0.284471E+00
 -0.232063E+00 -0.232063E+00 -0.284471E+00 -0.468369E+00 -0.100995E+01 -0.190155E+01
 -0.295236E+01 -0.386307E+01 -0.445023E+01 -0.469693E+01 -0.475948E+01 -0.475948E+01
 -0.465019E+01 -0.445023E+01 -0.397118E+01 -0.318109E+01 -0.219125E+01 -0.125763E+01
 -0.602848E+00 -0.314799E+00 -0.234093E+00 -0.200150E+00 -0.234093E+00 -0.314799E+00
 -0.602848E+00 -0.125763E+01 -0.219125E+01 -0.318109E+01 -0.397118E+01 -0.445023E+01
 -0.465019E+01 -0.469693E+01 -0.465019E+01 -0.427482E+01 -0.386307E+01 -0.318109E+01
 -0.229396E+01 -0.139788E+01 -0.710288E+00 -0.348635E+00 -0.235189E+00 -0.177816E+00
 -0.177816E+00 -0.235189E+00 -0.348635E+00 -0.710288E+00 -0.139788E+01 -0.229396E+01
 -0.318109E+01 -0.386307E+01 -0.427482E+01 -0.445023E+01 -0.445023E+01 -0.427482E+01
 -0.352749E+01 -0.295236E+01 -0.219125E+01 -0.139788E+01 -0.749906E+00 -0.373066E+00
 -0.235040E+00 -0.166541E+00 -0.129916E+00 -0.166541E+00 -0.235040E+00 -0.373066E+00
 -0.749906E+00 -0.139788E+01 -0.219125E+01 -0.295236E+01 -0.352749E+01 -0.386307E+01
 -0.397118E+01 -0.386307E+01 -0.352749E+01 -0.250792E+01 -0.190155E+01 -0.125763E+01
 -0.710288E+00 -0.373066E+00 -0.235577E+00 -0.159484E+00 -0.103802E+00 -0.103802E+00
 -0.159484E+00 -0.235577E+00 -0.373066E+00 -0.710288E+00 -0.125763E+01 -0.190155E+01
 -0.250792E+01 -0.295236E+01 -0.318109E+01 -0.318109E+01 -0.295236E+01 -0.250792E+01
 -0.147892E+01 -0.100995E+01 -0.602848E+00 -0.348635E+00 -0.235040E+00 -0.159484E+00
 -0.957745E-01 -0.749146E-01 -0.957745E-01 -0.159484E+00 -0.235040E+00 -0.348635E+00
 -0.602848E+00 -0.100995E+01 -0.147892E+01 -0.190155E+01 -0.219125E+01 -0.229396E+01
 -0.219125E+01 -0.190155E+01 -0.147892E+01 -0.719950E+00 -0.468369E+00 -0.314799E+00
 -0.235189E+00 -0.166541E+00 -0.103802E+00 -0.749146E-01 -0.749146E-01 -0.103802E+00
 -0.166541E+00 -0.235189E+00 -0.314799E+00 -0.468369E+00 -0.719950E+00 -0.100995E+01
 -0.125763E+01 -0.139788E+01 -0.139788E+01 -0.125763E+01 -0.100995E+01 -0.719950E+00
 -0.355001E+00 -0.284471E+00 -0.234093E+00 -0.177816E+00 -0.129916E+00 -0.103802E+00
 -0.957745E-01 -0.103802E+00 -0.129916E+00 -0.177816E+00 -0.234093E+00 -0.284471E+00
 -0.355001E+00 -0.468369E+00 -0.602848E+00 -0.710288E+00 -0.749906E+00 -0.710288E+00
 -0.602848E+00 -0.468369E+00 -0.355001E+00 -0.259606E+00 -0.232063E+00 -0.200150E+00
 -0.177816E+00 -0.166541E+00 -0.159484E+00 -0.159484E+00 -0.166541E+00 -0.177816E+00
 -0.200150E+00 -0.232063E+00 -0.259606E+00 -0.284471E+00 -0.314799E+00 -0.348635E+00
 -0.373066E+00 -0.373066E+00 -0.348635E+00 -0.314799E+00 -0.284471E+00 -0.259606E+00
 -0.231807E+00 -0.232063E+00 -0.234093E+00 -0.235189E+00 -0.235040E+00 -0.235577E+00
 -0.235040E+00 -0.235189E+00 -0.234093E+00 -0.232063E+00 -0.231807E+00 -0.232063E+00
 -0.234093E+00 -0.235189E+00 -0.235040E+00 -0.235577E+00 -0.235040E+00 -0.235189E+00
 -0.234093E+00 -0.232063E+00 -0.231807E+00 -0.259606E+00 -0.284471E+00 -0.314799E+00
 -0.348635E+00 -0.373066E+00 -0.373066E+00 -0.348635E+00 -0.314799E+00 -0.284471E+00
 -0.259606E+00 -0.232063E+00 -0.200150E+00 -0.177816E+00 -0.166541E+00 -0.159484E+00
 -0.159484E+00 -0.166541E+00 -0.177816E+00 -0.200150E+00 -0.232063E+00 -0.259606E+00
 -0.355001E+00 -0.468369E+00 -0.602848E+00 -0.710288E+00 -0.749906E+00 -0.710288E+00
 -0.602848E+00 -0.468369E+00 -0.355001E+00 -0.284471E+00 -0.234093E+00 -0.177816E+00
 -0.129916E+00 -0.103802E+00 -0.957745E-01 -0.103802E+00 -0.129916E+00 -0.177816E+00
 -0.234093E+00 -0.284471E+00 -0.355001E+00 -0.719950E+00 -0.100995E+01 -0.125763E+01
 -0.139788E+01 -0.139788E+01 -0.125763E+01 -0.100995E+01 -0.719950E+00 -0.468369E+00
 -0.314799E+00 -0.235189E+00 -0.166541E+00 -0.103802E+00 -0.749146E-01 -0.749146E-01
 -0.103802E+00 -0.166541E+00 -0.235189E+00 -0.314799E+00 -0.468369E+00 -0.719950E+00
 -0.147892E+01 -0.190155E+01 -0.219125E+01 -0.229396E+01 -0.219125E+01 -0.190155E+01
 -0.147892E+01 -0.100995E+01 -0.602848E+00 -0.348635E+00 -0.235040E+00 -0.159484E+00
 -0.957745E-01 -0.749146E-01 -0.957745E-01 -0.159484E+00 -0.235040E+00 -0.348635E+00
 -0.602848E+00 -0.100995E+01 -0.147892E+01 -0.250792E+01 -0.295236E+01 -0.318109E+01
 -0.318109E+01 -0.295236E+01 -0.250792E+01 -0.190155E+01 -0.125763E+01 -0.710288E+00
 -0.373066E+00 -0.235577E+00 -0.159484E+00 -0.103802E+00 -0.103802E+00 -0.159484E+00
 -0.235577E+00 -0.373066E+00 -0.710288E+00 -0.125763E+01 -0.190155E+01 -0.250792E+01
 -0.352749E+01 -0.386307E+01 -0.397118E+01 -0.386307E+01 -0.352749E+01 -0.295236E+01
 -0.219125E+01 -0.139788E+01 -0.749906E+00 -0.373066E+00 -0.235040E+00 -0.166541E+00
 -0.129916E+00 -0.166541E+00 -0.235040E+00 -0.373066E+00 -0.749906E+00 -0.139788E+01
 -0.219125E+01 -0.295236E+01 -0.352749E+01 -0.427482E+01 -0.445023E+01 -0.445023E+01
 -0.427482E+01 -0.386307E+01 -0.318109E+01 -0.229396E+01 -0.139788E+01 -0.710288E+00
 -0.348635E+00 -0.235189E+00 -0.177816E+00 -0.177816E+00 -0.235189E+00 -0.348635E+00
 -0.710288E+00 -0.139788E+01 -0.229396E+01 -0.318109E+01 -0.386307E+01 -0.427482E+01
 -0.465019E+01 -0.469693E+01 -0.465019E+01 -0.445023E+01 -0.397118E+01 -0.318109E+01
 -0.219125E+01 -0.125763E+01 -0.602848E+00 -0.314799E+00 -0.234093E+00 -0.200150E+00
 -0.234093E+00 -0.314799E+00 -0.602848E+00 -0.125763E+01 -0.219125E+01 -0.318109E+01
 -0.397118E+01 -0.445023E+01 -0.465019E+01 -0.475948E+01 -0.475948E+01 -0.469693E+01
 -0.445023E+01 -0.386307E+01 -0.295236E+01 -0.190155E+01 -0.100995E+01 -0.468369E+00
 -0.284471E+00 -0.232063E+00 -0.232063E+00 -0.284471E+00 -0.468369E+00 -0.100995E+01
 -0.190155E+01 -0.295236E+01 -0.386307E+01 -0.445023E+01 -0.469693E+01 -0.475948E+01
 -0.478080E+01 -0.475948E+01 -0.465019E+01 -0.427482E+01 -0.352749E+01 -0.250792E+01
 -0.147892E+01 -0.719950E+00 -0.355001E+00 -0.259606E+00 -0.231807E+00 -0.259606E+00
 -0.355001E+00 -0.719950E+00 -0.147892E+01 -0.250792E+01 -0.352749E+01 -0.427482E+01
 -0.465019E+01 -0.475948E+01 -0.478080E+01 -0.475948E+01 -0.469693E+01 -0.445023E+01
 -0.386307E+01 -0.295236E+01 -0.190155E+01 -0.100995E+01 -0.468369E+00 -0.284471E+00
 -0.232063E+00 -0.232063E+00 -0.284471E+00 -0.468369E+00 -0.100995E+01 -0.190155E+01
 -0.295236E+01 -0.386307E+01 -0.445023E+01 -0.469693E+01 -0.475948E+01 -0.475948E+01
 -0.469693E+01 -0.452735E+01 -0.407698E+01 -0.329587E+01 -0.229384E+01 -0.132855E+01
 -0.639173E+00 -0.327735E+00 -0.243863E+00 -0.211572E+00 -0.243863E+00 -0.327735E+00
 -0.639173E+00 -0.132855E+01 -0.229384E+01 -0.329587E+01 -0.407698E+01 -0.452735E+01
 -0.469693E+01 -0.473258E+01 -0.469693E+01 -0.445023E+01 -0.407698E+01 -0.341160E+01
 -0.250635E+01 -0.155502E+01 -0.801064E+00 -0.382922E+00 -0.252302E+00 -0.196276E+00
 -0.196276E+00 -0.252302E+00 -0.382922E+00 -0.801064E+00 -0.155502E+01 -0.250635E+01
 -0.341160E+01 -0.407698E+01 -0.445023E+01 -0.459347E+01 -0.459347E+01 -0.445023E+01
 -0.386307E+01 -0.329587E+01 -0.250635E+01 -0.163585E+01 -0.896009E+00 -0.433586E+00
 -0.258159E+00 -0.189355E+00 -0.151452E+00 -0.189355E+00 -0.258159E+00 -0.433586E+00
 -0.896009E+00 -0.163585E+01 -0.250635E+01 -0.329587E+01 -0.386307E+01 -0.417814E+01
 -0.427511E+01 -0.417814E+01 -0.386307E+01 -0.295236E+01 -0.229384E+01 -0.155502E+01
 -0.896009E+00 -0.454015E+00 -0.263590E+00 -0.184326E+00 -0.125542E+00 -0.125542E+00
 -0.184326E+00 -0.263590E+00 -0.454015E+00 -0.896009E+00 -0.155502E+01 -0.229384E+01
 -0.295236E+01 -0.341198E+01 -0.363978E+01 -0.363978E+01 -0.341198E+01 -0.295236E+01
 -0.190155E+01 -0.132855E+01 -0.801064E+00 -0.433586E+00 -0.263590E+00 -0.181598E+00
 -0.113165E+00 -0.861538E-01 -0.113165E+00 -0.181598E+00 -0.263590E+00 -0.433586E+00
 -0.801064E+00 -0.132855E+01 -0.190155E+01 -0.239913E+01 -0.272570E+01 -0.283855E+01
 -0.272570E+01 -0.239913E+01 -0.190155E+01 -0.100995E+01 -0.639173E+00 -0.382922E+00
 -0.258159E+00 -0.184326E+00 -0.113165E+00 -0.757530E-01 -0.757530E-01 -0.113165E+00
 -0.184326E+00 -0.258159E+00 -0.382922E+00 -0.639173E+00 -0.100995E+01 -0.140101E+01
 -0.172008E+01 -0.189866E+01 -0.189866E+01 -0.172008E+01 -0.140101E+01 -0.100995E+01
 -0.468369E+00 -0.327735E+00 -0.252302E+00 -0.189355E+00 -0.125542E+00 -0.861538E-01
 -0.757530E-01 -0.861538E-01 -0.125542E+00 -0.189355E+00 -0.252302E+00 -0.327735E+00
 -0.468369E+00 -0.677464E+00 -0.897774E+00 -0.106141E+01 -0.112042E+01 -0.106141E+01
 -0.897774E+00 -0.677464E+00 -0.468369E+00 -0.284471E+00 -0.243863E+00 -0.196276E+00
 -0.151452E+00 -0.125542E+00 -0.113165E+00 -0.113165E+00 -0.125542E+00 -0.151452E+00
 -0.196276E+00 -0.243863E+00 -0.284471E+00 -0.339657E+00 -0.419981E+00 -0.505422E+00
 -0.559612E+00 -0.559612E+00 -0.505422E+00 -0.419981E+00 -0.339657E+00 -0.284471E+00
 -0.232063E+00 -0.211572E+00 -0.196276E+00 -0.189355E+00 -0.184326E+00 -0.181598E+00
 -0.184326E+00 -0.189355E+00 -0.196276E+00 -0.211572E+00 -0.232063E+00 -0.249802E+00
 -0.264969E+00 -0.279345E+00 -0.293728E+00 -0.300970E+00 -0.293728E+00 -0.279345E+00
 -0.264969E+00 -0.249802E+00 -0.232063E+00 -0.232063E+00 -0.243863E+00 -0.252302E+00
 -0.258159E+00 -0.263590E+00 -0.263590E+00 -0.258159E+00 -0.252302E+00 -0.243863E+00
 -0.232063E+00 -0.219512E+00 -0.210564E+00 -0.206611E+00 -0.202808E+00 -0.200309E+00
 -0.200309E+00 -0.202808E+00 -0.206611E+00 -0.210564E+00 -0.219512E+00 -0.232063E+00
 -0.284471E+00 -0.327735E+00 -0.382922E+00 -0.433586E+00 -0.454015E+00 -0.433586E+00
 -0.382922E+00 -0.327735E+00 -0.284471E+00 -0.249802E+00 -0.210564E+00 -0.170130E+00
 -0.144116E+00 -0.130228E+00 -0.124738E+00 -0.130228E+00 -0.144116E+00 -0.170130E+00
 -0.210564E+00 -0.249802E+00 -0.284471E+00 -0.468369E+00 -0.639173E+00 -0.801064E+00
 -0.896009E+00 -0.896009E+00 -0.801064E+00 -0.639173E+00 -0.468369E+00 -0.339657E+00
 -0.264969E+00 -0.206611E+00 -0.144116E+00 -0.975180E-01 -0.769317E-01 -0.769317E-01
 -0.975180E-01 -0.144116E+00 -0.206611E+00 -0.264969E+00 -0.339657E+00 -0.468369E+00
 -0.100995E+01 -0.132855E+01 -0.155502E+01 -0.163585E+01 -0.155502E+01 -0.132855E+01
 -0.100995E+01 -0.677464E+00 -0.419981E+00 -0.279345E+00 -0.202808E+00 -0.130228E+00
 -0.769317E-01 -0.622448E-01 -0.769317E-01 -0.130228E+00 -0.202808E+00 -0.279345E+00
 -0.419981E+00 -0.677464E+00 -0.100995E+01 -0.190155E+01 -0.229384E+01 -0.250635E+01
 -0.250635E+01 -0.229384E+01 -0.190155E+01 -0.140101E+01 -0.897774E+00 -0.505422E+00
 -0.293728E+00 -0.200309E+00 -0.124738E+00 -0.769317E-01 -0.769317E-01 -0.124738E+00
 -0.200309E+00 -0.293728E+00 -0.505422E+00 -0.897774E+00 -0.140101E+01 -0.190155E+01
 -0.295236E+01 -0.329587E+01 -0.341160E+01 -0.329587E+01 -0.295236E+01 -0.239913E+01
 -0.172008E+01 -0.106141E+01 -0.559612E+00 -0.300970E+00 -0.200309E+00 -0.130228E+00
 -0.975180E-01 -0.130228E+00 -0.200309E+00 -0.300970E+00 -0.559612E+00 -0.106141E+01
 -0.172008E+01 -0.239913E+01 -0.295236E+01 -0.386307E+01 -0.407698E+01 -0.407698E+01
 -0.386307E+01 -0.341198E+01 -0.272570E+01 -0.189866E+01 -0.112042E+01 -0.559612E+00
 -0.293728E+00 -0.202808E+00 -0.144116E+00 -0.144116E+00 -0.202808E+00 -0.293728E+00
 -0.559612E+00 -0.112042E+01 -0.189866E+01 -0.272570E+01 -0.341198E+01 -0.386307E+01
 -0.445023E+01 -0.452735E+01 -0.445023E+01 -0.417814E+01 -0.363978E+01 -0.283855E+01
 -0.189866E+01 -0.106141E+01 -0.505422E+00 -0.279345E+00 -0.206611E+00 -0.170130E+00
 -0.206611E+00 -0.279345E+00 -0.505422E+00 -0.106141E+01 -0.189866E+01 -0.283855E+01
 -0.363978E+01 -0.417814E+01 -0.445023E+01 -0.469693E+01 -0.469693E+01 -0.459347E+01
 -0.427511E+01 -0.363978E+01 -0.272570E+01 -0.172008E+01 -0.897774E+00 -0.419981E+00
 -0.264969E+00 -0.210564E+00 -0.210564E+00 -0.264969E+00 -0.419981E+00 -0.897774E+00
 -0.172008E+01 -0.272570E+01 -0.363978E+01 -0.427511E+01 -0.459347E+01 -0.469693E+01
 -0.475948E+01 -0.473258E+01 -0.459347E+01 -0.417814E+01 -0.341198E+01 -0.239913E+01
 -0.140101E+01 -0.677464E+00 -0.339657E+00 -0.249802E+00 -0.219512E+00 -0.249802E+00
 -0.339657E+00 -0.677464E+00 -0.140101E+01 -0.239913E+01 -0.341198E+01 -0.417814E+01
 -0.459347E+01 -0.473258E+01 -0.475948E+01 -0.475948E+01 -0.469693E+01 -0.445023E+01
 -0.386307E+01 -0.295236E+01 -0.190155E+01 -0.100995E+01 -0.468369E+00 -0.284471E+00
 -0.232063E+00 -0.232063E+00 -0.284471E+00 -0.468369E+00 -0.100995E+01 -0.190155E+01
 -0.295236E+01 -0.386307E+01 -0.445023E+01 -0.469693E+01 -0.475948E+01 -0.475948E+01
 -0.465019E+01 -0.445023E+01 -0.397118E+01 -0.318109E+01 -0.219125E+01 -0.125763E+01
 -0.602848E+00 -0.314799E+00 -0.234093E+00 -0.200150E+00 -0.234093E+00 -0.314799E+00
 -0.602848E+00 -0.125763E+01 -0.219125E+01 -0.318109E+01 -0.397118E+01 -0.445023E+01
 -0.465019E+01 -0.469693E+01 -0.465019E+01 -0.445023E+01 -0.407698E+01 -0.341160E+01
 -0.250635E+01 -0.155502E+01 -0.801064E+00 -0.382922E+00 -0.252302E+00 -0.196276E+00
 -0.196276E+00 -0.252302E+00 -0.382922E+00 -0.801064E+00 -0.155502E+01 -0.250635E+01
 -0.341160E+01 -0.407698E+01 -0.445023E+01 -0.459347E+01 -0.459347E+01 -0.445023E+01
 -0.397118E+01 -0.341160E+01 -0.261614E+01 -0.172113E+01 -0.950317E+00 -0.457072E+00
 -0.266070E+00 -0.196840E+00 -0.158873E+00 -0.196840E+00 -0.266070E+00 -0.457072E+00
 -0.950317E+00 -0.172113E+01 -0.261614E+01 -0.341160E+01 -0.397118E+01 -0.427511E+01
 -0.436684E+01 -0.427511E+01 -0.397118E+01 -0.318109E+01 -0.250635E+01 -0.172113E+01
 -0.100355E+01 -0.504702E+00 -0.279240E+00 -0.196198E+00 -0.137025E+00 -0.137025E+00
 -0.196198E+00 -0.279240E+00 -0.504702E+00 -0.100355E+01 -0.172113E+01 -0.250635E+01
 -0.318109E+01 -0.363978E+01 -0.386309E+01 -0.386309E+01 -0.363978E+01 -0.318109E+01
 -0.219125E+01 -0.155502E+01 -0.950317E+00 -0.504702E+00 -0.285789E+00 -0.194925E+00
 -0.125744E+00 -0.950188E-01 -0.125744E+00 -0.194925E+00 -0.285789E+00 -0.504702E+00
 -0.950317E+00 -0.155502E+01 -0.219125E+01 -0.272570E+01 -0.306532E+01 -0.318031E+01
 -0.306532E+01 -0.272570E+01 -0.219125E+01 -0.125763E+01 -0.801064E+00 -0.457072E+00
 -0.279240E+00 -0.194925E+00 -0.120548E+00 -0.765323E-01 -0.765323E-01 -0.120548E+00
 -0.194925E+00 -0.279240E+00 -0.457072E+00 -0.801064E+00 -0.125763E+01 -0.172008E+01
 -0.208877E+01 -0.229114E+01 -0.229114E+01 -0.208877E+01 -0.172008E+01 -0.125763E+01
 -0.602848E+00 -0.382922E+00 -0.266070E+00 -0.196198E+00 -0.125744E+00 -0.765323E-01
 -0.637050E-01 -0.765323E-01 -0.125744E+00 -0.196198E+00 -0.266070E+00 -0.382922E+00
 -0.602848E+00 -0.897774E+00 -0.118640E+01 -0.139379E+01 -0.146853E+01 -0.139379E+01
 -0.118640E+01 -0.897774E+00 -0.602848E+00 -0.314799E+00 -0.252302E+00 -0.196840E+00
 -0.137025E+00 -0.950188E-01 -0.765323E-01 -0.765323E-01 -0.950188E-01 -0.137025E+00
 -0.196840E+00 -0.252302E+00 -0.314799E+00 -0.419981E+00 -0.564374E+00 -0.705055E+00
 -0.788881E+00 -0.788881E+00 -0.705055E+00 -0.564374E+00 -0.419981E+00 -0.314799E+00
 -0.234093E+00 -0.196276E+00 -0.158873E+00 -0.137025E+00 -0.125744E+00 -0.120548E+00
 -0.125744E+00 -0.137025E+00 -0.158873E+00 -0.196276E+00 -0.234093E+00 -0.264969E+00
 -0.298603E+00 -0.341711E+00 -0.382485E+00 -0.399074E+00 -0.382485E+00 -0.341711E+00
 -0.298603E+00 -0.264969E+00 -0.234093E+00 -0.200150E+00 -0.196276E+00 -0.196840E+00
 -0.196198E+00 -0.194925E+00 -0.194925E+00 -0.196198E+00 -0.196840E+00 -0.196276E+00
 -0.200150E+00 -0.210564E+00 -0.221870E+00 -0.228341E+00 -0.231623E+00 -0.235728E+00
 -0.235728E+00 -0.231623E+00 -0.228341E+00 -0.221870E+00 -0.210564E+00 -0.200150E+00
 -0.234093E+00 -0.252302E+00 -0.266070E+00 -0.279240E+00 -0.285789E+00 -0.279240E+00
 -0.266070E+00 -0.252302E+00 -0.234093E+00 -0.210564E+00 -0.186832E+00 -0.170744E+00
 -0.162507E+00 -0.156896E+00 -0.154649E+00 -0.156896E+00 -0.162507E+00 -0.170744E+00
 -0.186832E+00 -0.210564E+00 -0.234093E+00 -0.314799E+00 -0.382922E+00 -0.457072E+00
 -0.504702E+00 -0.504702E+00 -0.457072E+00 -0.382922E+00 -0.314799E+00 -0.264969E+00
 -0.221870E+00 -0.170744E+00 -0.125013E+00 -0.987150E-01 -0.856627E-01 -0.856627E-01
 -0.987150E-01 -0.125013E+00 -0.170744E+00 -0.221870E+00 -0.264969E+00 -0.314799E+00
 -0.602848E+00 -0.801064E+00 -0.950317E+00 -0.100355E+01 -0.950317E+00 -0.801064E+00
 -0.602848E+00 -0.419981E+00 -0.298603E+00 -0.228341E+00 -0.162507E+00 -0.987150E-01
 -0.606061E-01 -0.498276E-01 -0.606061E-01 -0.987150E-01 -0.162507E+00 -0.228341E+00
 -0.298603E+00 -0.419981E+00 -0.602848E+00 -0.125763E+01 -0.155502E+01 -0.172113E+01
 -0.172113E+01 -0.155502E+01 -0.125763E+01 -0.897774E+00 -0.564374E+00 -0.341711E+00
 -0.231623E+00 -0.156896E+00 -0.856627E-01 -0.498276E-01 -0.498276E-01 -0.856627E-01
 -0.156896E+00 -0.231623E+00 -0.341711E+00 -0.564374E+00 -0.897774E+00 -0.125763E+01
 -0.219125E+01 -0.250635E+01 -0.261614E+01 -0.250635E+01 -0.219125E+01 -0.172008E+01
 -0.118640E+01 -0.705055E+00 -0.382485E+00 -0.235728E+00 -0.154649E+00 -0.856627E-01
 -0.606061E-01 -0.856627E-01 -0.154649E+00 -0.235728E+00 -0.382485E+00 -0.705055E+00
 -0.118640E+01 -0.172008E+01 -0.219125E+01 -0.318109E+01 -0.341160E+01 -0.341160E+01
 -0.318109E+01 -0.272570E+01 -0.208877E+01 -0.139379E+01 -0.788881E+00 -0.399074E+00
 -0.235728E+00 -0.156896E+00 -0.987150E-01 -0.987150E-01 -0.156896E+00 -0.235728E+00
 -0.399074E+00 -0.788881E+00 -0.139379E+01 -0.208877E+01 -0.272570E+01 -0.318109E+01
 -0.397118E+01 -0.407698E+01 -0.397118E+01 -0.363978E+01 -0.306532E+01 -0.229114E+01
 -0.146853E+01 -0.788881E+00 -0.382485E+00 -0.231623E+00 -0.162507E+00 -0.125013E+00
 -0.162507E+00 -0.231623E+00 -0.382485E+00 -0.788881E+00 -0.146853E+01 -0.229114E+01
 -0.306532E+01 -0.363978E+01 -0.397118E+01 -0.445023E+01 -0.445023E+01 -0.427511E+01
 -0.386309E+01 -0.318031E+01 -0.229114E+01 -0.139379E+01 -0.705055E+00 -0.341711E+00
 -0.228341E+00 -0.170744E+00 -0.170744E+00 -0.228341E+00 -0.341711E+00 -0.705055E+00
 -0.139379E+01 -0.229114E+01 -0.318031E+01 -0.386309E+01 -0.427511E+01 -0.445023E+01
 -0.465019E+01 -0.459347E+01 -0.436684E+01 -0.386309E+01 -0.306532E+01 -0.208877E+01
 -0.118640E+01 -0.564374E+00 -0.298603E+00 -0.221870E+00 -0.186832E+00 -0.221870E+00
 -0.298603E+00 -0.564374E+00 -0.118640E+01 -0.208877E+01 -0.306532E+01 -0.386309E+01
 -0.436684E+01 -0.459347E+01 -0.465019E+01 -0.469693E+01 -0.459347E+01 -0.427511E+01
 -0.363978E+01 -0.272570E+01 -0.172008E+01 -0.897774E+00 -0.419981E+00 -0.264969E+00
 -0.210564E+00 -0.210564E+00 -0.264969E+00 -0.419981E+00 -0.897774E+00 -0.172008E+01
 -0.272570E+01 -0.363978E+01 -0.427511E+01 -0.459347E+01 -0.469693E+01 -0.469693E+01
 -0.465019E+01 -0.445023E+01 -0.397118E+01 -0.318109E+01 -0.219125E+01 -0.125763E+01
 -0.602848E+00 -0.314799E+00 -0.234093E+00 -0.200150E+00 -0.234093E+00 -0.314799E+00
 -0.602848E+00 -0.125763E+01 -0.219125E+01 -0.318109E+01 -0.397118E+01 -0.445023E+01
 -0.465019E+01 -0.469693E+01 -0.465019E+01 -0.427482E+01 -0.386307E+01 -0.318109E+01
 -0.229396E+01 -0.139788E+01 -0.710288E+00 -0.348635E+00 -0.235189E+00 -0.177816E+00
 -0.177816E+00 -0.235189E+00 -0.348635E+00 -0.710288E+00 -0.139788E+01 -0.229396E+01
 -0.318109E+01 -0.386307E+01 -0.427482E+01 -0.445023E+01 -0.445023E+01 -0.427482E+01
 -0.386307E+01 -0.329587E+01 -0.250635E+01 -0.163585E+01 -0.896009E+00 -0.433586E+00
 -0.258159E+00 -0.189355E+00 -0.151452E+00 -0.189355E+00 -0.258159E+00 -0.433586E+00
 -0.896009E+00 -0.163585E+01 -0.250635E+01 -0.329587E+01 -0.386307E+01 -0.417814E+01
 -0.427511E+01 -0.417814E+01 -0.386307E+01 -0.318109E+01 -0.250635E+01 -0.172113E+01
 -0.100355E+01 -0.504702E+00 -0.279240E+00 -0.196198E+00 -0.137025E+00 -0.137025E+00
 -0.196198E+00 -0.279240E+00 -0.504702E+00 -0.100355E+01 -0.172113E+01 -0.250635E+01
 -0.318109E+01 -0.363978E+01 -0.386309E+01 -0.386309E+01 -0.363978E+01 -0.318109E+01
 -0.229396E+01 -0.163585E+01 -0.100355E+01 -0.531127E+00 -0.294221E+00 -0.199678E+00
 -0.130830E+00 -0.989867E-01 -0.130830E+00 -0.199678E+00 -0.294221E+00 -0.531127E+00
 -0.100355E+01 -0.163585E+01 -0.229396E+01 -0.283855E+01 -0.318031E+01 -0.329518E+01
 -0.318031E+01 -0.283855E+01 -0.229396E+01 -0.139788E+01 -0.896009E+00 -0.504702E+00
 -0.294221E+00 -0.201640E+00 -0.126376E+00 -0.787866E-01 -0.787866E-01 -0.126376E+00
 -0.201640E+00 -0.294221E+00 -0.504702E+00 -0.896009E+00 -0.139788E+01 -0.189866E+01
 -0.229114E+01 -0.250276E+01 -0.250276E+01 -0.229114E+01 -0.189866E+01 -0.139788E+01
 -0.710288E+00 -0.433586E+00 -0.279240E+00 -0.199678E+00 -0.126376E+00 -0.710827E-01
 -0.560166E-01 -0.710827E-01 -0.126376E+00 -0.199678E+00 -0.279240E+00 -0.433586E+00
 -0.710288E+00 -0.106141E+01 -0.139379E+01 -0.162853E+01 -0.171315E+01 -0.162853E+01
 -0.139379E+01 -0.106141E+01 -0.710288E+00 -0.348635E+00 -0.258159E+00 -0.196198E+00
 -0.130830E+00 -0.787866E-01 -0.560166E-01 -0.560166E-01 -0.787866E-01 -0.130830E+00
 -0.196198E+00 -0.258159E+00 -0.348635E+00 -0.505422E+00 -0.705055E+00 -0.886652E+00
 -0.992053E+00 -0.992053E+00 -0.886652E+00 -0.705055E+00 -0.505422E+00 -0.348635E+00
 -0.235189E+00 -0.189355E+00 -0.137025E+00 -0.989867E-01 -0.787866E-01 -0.710827E-01
 -0.787866E-01 -0.989867E-01 -0.137025E+00 -0.189355E+00 -0.235189E+00 -0.279345E+00
 -0.341711E+00 -0.421672E+00 -0.489562E+00 -0.514722E+00 -0.489562E+00 -0.421672E+00
 -0.341711E+00 -0.279345E+00 -0.235189E+00 -0.177816E+00 -0.151452E+00 -0.137025E+00
 -0.130830E+00 -0.126376E+00 -0.126376E+00 -0.130830E+00 -0.137025E+00 -0.151452E+00
 -0.177816E+00 -0.206611E+00 -0.228341E+00 -0.244996E+00 -0.261660E+00 -0.273612E+00
 -0.273612E+00 -0.261660E+00 -0.244996E+00 -0.228341E+00 -0.206611E+00 -0.177816E+00
 -0.177816E+00 -0.189355E+00 -0.196198E+00 -0.199678E+00 -0.201640E+00 -0.199678E+00
 -0.196198E+00 -0.189355E+00 -0.177816E+00 -0.170130E+00 -0.170744E+00 -0.175241E+00
 -0.176760E+00 -0.176368E+00 -0.176860E+00 -0.176368E+00 -0.176760E+00 -0.175241E+00
 -0.170744E+00 -0.170130E+00 -0.177816E+00 -0.235189E+00 -0.258159E+00 -0.279240E+00
 -0.294221E+00 -0.294221E+00 -0.279240E+00 -0.258159E+00 -0.235189E+00 -0.206611E+00
 -0.170744E+00 -0.136312E+00 -0.115632E+00 -0.104829E+00 -0.980457E-01 -0.980457E-01
 -0.104829E+00 -0.115632E+00 -0.136312E+00 -0.170744E+00 -0.206611E+00 -0.235189E+00
 -0.348635E+00 -0.433586E+00 -0.504702E+00 -0.531127E+00 -0.504702E+00 -0.433586E+00
 -0.348635E+00 -0.279345E+00 -0.228341E+00 -0.175241E+00 -0.115632E+00 -0.721406E-01
 -0.485268E-01 -0.397472E-01 -0.485268E-01 -0.721406E-01 -0.115632E+00 -0.175241E+00
 -0.228341E+00 -0.279345E+00 -0.348635E+00 -0.710288E+00 -0.896009E+00 -0.100355E+01
 -0.100355E+01 -0.896009E+00 -0.710288E+00 -0.505422E+00 -0.341711E+00 -0.244996E+00
 -0.176760E+00 -0.104829E+00 -0.485268E-01 -0.236011E-01 -0.236011E-01 -0.485268E-01
 -0.104829E+00 -0.176760E+00 -0.244996E+00 -0.341711E+00 -0.505422E+00 -0.710288E+00
 -0.139788E+01 -0.163585E+01 -0.172113E+01 -0.163585E+01 -0.139788E+01 -0.106141E+01
 -0.705055E+00 -0.421672E+00 -0.261660E+00 -0.176368E+00 -0.980457E-01 -0.397472E-01
 -0.236011E-01 -0.397472E-01 -0.980457E-01 -0.176368E+00 -0.261660E+00 -0.421672E+00
 -0.705055E+00 -0.106141E+01 -0.139788E+01 -0.229396E+01 -0.250635E+01 -0.250635E+01
 -0.229396E+01 -0.189866E+01 -0.139379E+01 -0.886652E+00 -0.489562E+00 -0.273612E+00
 -0.176860E+00 -0.980457E-01 -0.485268E-01 -0.485268E-01 -0.980457E-01 -0.176860E+00
 -0.273612E+00 -0.489562E+00 -0.886652E+00 -0.139379E+01 -0.189866E+01 -0.229396E+01
 -0.318109E+01 -0.329587E+01 -0.318109E+01 -0.283855E+01 -0.229114E+01 -0.162853E+01
 -0.992053E+00 -0.514722E+00 -0.273612E+00 -0.176368E+00 -0.104829E+00 -0.721406E-01
 -0.104829E+00 -0.176368E+00 -0.273612E+00 -0.514722E+00 -0.992053E+00 -0.162853E+01
 -0.229114E+01 -0.283855E+01 -0.318109E+01 -0.386307E+01 -0.386307E+01 -0.363978E+01
 -0.318031E+01 -0.250276E+01 -0.171315E+01 -0.992053E+00 -0.489562E+00 -0.261660E+00
 -0.176760E+00 -0.115632E+00 -0.115632E+00 -0.176760E+00 -0.261660E+00 -0.489562E+00
 -0.992053E+00 -0.171315E+01 -0.250276E+01 -0.318031E+01 -0.363978E+01 -0.386307E+01
 -0.427482E+01 -0.417814E+01 -0.386309E+01 -0.329518E+01 -0.250276E+01 -0.162853E+01
 -0.886652E+00 -0.421672E+00 -0.244996E+00 -0.175241E+00 -0.136312E+00 -0.175241E+00
 -0.244996E+00 -0.421672E+00 -0.886652E+00 -0.162853E+01 -0.250276E+01 -0.329518E+01
 -0.386309E+01 -0.417814E+01 -0.427482E+01 -0.445023E+01 -0.427511E+01 -0.386309E+01
 -0.318031E+01 -0.229114E+01 -0.139379E+01 -0.705055E+00 -0.341711E+00 -0.228341E+00
 -0.170744E+00 -0.170744E+00 -0.228341E+00 -0.341711E+00 -0.705055E+00 -0.139379E+01
 -0.229114E+01 -0.318031E+01 -0.386309E+01 -0.427511E+01 -0.445023E+01 -0.445023E+01
 -0.445023E+01 -0.417814E+01 -0.363978E+01 -0.283855E+01 -0.189866E+01 -0.106141E+01
 -0.505422E+00 -0.279345E+00 -0.206611E+00 -0.170130E+00 -0.206611E+00 -0.279345E+00
 -0.505422E+00 -0.106141E+01 -0.189866E+01 -0.283855E+01 -0.363978E+01 -0.417814E+01
 -0.445023E+01 -0.452735E+01 -0.445023E+01 -0.427482E+01 -0.386307E+01 -0.318109E+01
 -0.229396E+01 -0.139788E+01 -0.710288E+00 -0.348635E+00 -0.235189E+00 -0.177816E+00
 -0.177816E+00 -0.235189E+00 -0.348635E+00 -0.710288E+00 -0.139788E+01 -0.229396E+01
 -0.318109E+01 -0.386307E+01 -0.427482E+01 -0.445023E+01 -0.445023E+01 -0.427482E+01
 -0.352749E+01 -0.295236E+01 -0.219125E+01 -0.139788E+01 -0.749906E+00 -0.373066E+00
 -0.235040E+00 -0.166541E+00 -0.129916E+00 -0.166541E+00 -0.235040E+00 -0.373066E+00
 -0.749906E+00 -0.139788E+01 -0.219125E+01 -0.295236E+01 -0.352749E+01 -0.386307E+01
 -0.397118E+01 -0.386307E+01 -0.352749E+01 -0.295236E+01 -0.229384E+01 -0.155502E+01
 -0.896009E+00 -0.454015E+00 -0.263590E+00 -0.184326E+00 -0.125542E+00 -0.125542E+00
 -0.184326E+00 -0.263590E+00 -0.454015E+00 -0.896009E+00 -0.155502E+01 -0.229384E+01
 -0.295236E+01 -0.341198E+01 -0.363978E+01 -0.363978E+01 -0.341198E+01 -0.295236E+01
 -0.219125E+01 -0.155502E+01 -0.950317E+00 -0.504702E+00 -0.285789E+00 -0.194925E+00
 -0.125744E+00 -0.950188E-01 -0.125744E+00 -0.194925E+00 -0.285789E+00 -0.504702E+00
 -0.950317E+00 -0.155502E+01 -0.219125E+01 -0.272570E+01 -0.306532E+01 -0.318031E+01
 -0.306532E+01 -0.272570E+01 -0.219125E+01 -0.139788E+01 -0.896009E+00 -0.504702E+00
 -0.294221E+00 -0.201640E+00 -0.126376E+00 -0.787866E-01 -0.787866E-01 -0.126376E+00
 -0.201640E+00 -0.294221E+00 -0.504702E+00 -0.896009E+00 -0.139788E+01 -0.189866E+01
 -0.229114E+01 -0.250276E+01 -0.250276E+01 -0.229114E+01 -0.189866E+01 -0.139788E+01
 -0.749906E+00 -0.454015E+00 -0.285789E+00 -0.201640E+00 -0.127014E+00 -0.692156E-01
 -0.530337E-01 -0.692156E-01 -0.127014E+00 -0.201640E+00 -0.285789E+00 -0.454015E+00
 -0.749906E+00 -0.112042E+01 -0.146853E+01 -0.171315E+01 -0.180143E+01 -0.171315E+01
 -0.146853E+01 -0.112042E+01 -0.749906E+00 -0.373066E+00 -0.263590E+00 -0.194925E+00
 -0.126376E+00 -0.692156E-01 -0.441483E-01 -0.441483E-01 -0.692156E-01 -0.126376E+00
 -0.194925E+00 -0.263590E+00 -0.373066E+00 -0.559612E+00 -0.788881E+00 -0.992053E+00
 -0.111060E+01 -0.111060E+01 -0.992053E+00 -0.788881E+00 -0.559612E+00 -0.373066E+00
 -0.235040E+00 -0.184326E+00 -0.125744E+00 -0.787866E-01 -0.530337E-01 -0.441483E-01
 -0.530337E-01 -0.787866E-01 -0.125744E+00 -0.184326E+00 -0.235040E+00 -0.293728E+00
 -0.382485E+00 -0.489562E+00 -0.577300E+00 -0.610223E+00 -0.577300E+00 -0.489562E+00
 -0.382485E+00 -0.293728E+00 -0.235040E+00 -0.166541E+00 -0.125542E+00 -0.950188E-01
 -0.787866E-01 -0.692156E-01 -0.692156E-01 -0.787866E-01 -0.950188E-01 -0.125542E+00
 -0.166541E+00 -0.202808E+00 -0.231623E+00 -0.261660E+00 -0.293818E+00 -0.314101E+00
 -0.314101E+00 -0.293818E+00 -0.261660E+00 -0.231623E+00 -0.202808E+00 -0.166541E+00
 -0.129916E+00 -0.125542E+00 -0.125744E+00 -0.126376E+00 -0.127014E+00 -0.126376E+00
 -0.125744E+00 -0.125542E+00 -0.129916E+00 -0.144116E+00 -0.162507E+00 -0.176760E+00
 -0.185127E+00 -0.190330E+00 -0.192662E+00 -0.190330E+00 -0.185127E+00 -0.176760E+00
 -0.162507E+00 -0.144116E+00 -0.129916E+00 -0.166541E+00 -0.184326E+00 -0.194925E+00
 -0.201640E+00 -0.201640E+00 -0.194925E+00 -0.184326E+00 -0.166541E+00 -0.144116E+00
 -0.125013E+00 -0.115632E+00 -0.113343E+00 -0.110732E+00 -0.109925E+00 -0.109925E+00
 -0.110732E+00 -0.113343E+00 -0.115632E+00 -0.125013E+00 -0.144116E+00 -0.166541E+00
 -0.235040E+00 -0.263590E+00 -0.285789E+00 -0.294221E+00 -0.285789E+00 -0.263590E+00
 -0.235040E+00 -0.202808E+00 -0.162507E+00 -0.115632E+00 -0.779253E-01 -0.555487E-01
 -0.413051E-01 -0.356421E-01 -0.413051E-01 -0.555487E-01 -0.779253E-01 -0.115632E+00
 -0.162507E+00 -0.202808E+00 -0.235040E+00 -0.373066E+00 -0.454015E+00 -0.504702E+00
 -0.504702E+00 -0.454015E+00 -0.373066E+00 -0.293728E+00 -0.231623E+00 -0.176760E+00
 -0.113343E+00 -0.555487E-01 -0.193232E-01 -0.231149E-03 -0.231149E-03 -0.193232E-01
 -0.555487E-01 -0.113343E+00 -0.176760E+00 -0.231623E+00 -0.293728E+00 -0.373066E+00
 -0.749906E+00 -0.896009E+00 -0.950317E+00 -0.896009E+00 -0.749906E+00 -0.559612E+00
 -0.382485E+00 -0.261660E+00 -0.185127E+00 -0.110732E+00 -0.413051E-01 -0.231149E-03
  0.117156E-01 -0.231149E-03 -0.413051E-01 -0.110732E+00 -0.185127E+00 -0.261660E+00
 -0.382485E+00 -0.559612E+00 -0.749906E+00 -0.139788E+01 -0.155502E+01 -0.155502E+01
 -0.139788E+01 -0.112042E+01 -0.788881E+00 -0.489562E+00 -0.293818E+00 -0.190330E+00
 -0.109925E+00 -0.356421E-01 -0.231149E-03 -0.231149E-03 -0.356421E-01 -0.109925E+00
 -0.190330E+00 -0.293818E+00 -0.489562E+00 -0.788881E+00 -0.112042E+01 -0.139788E+01
 -0.219125E+01 -0.229384E+01 -0.219125E+01 -0.189866E+01 -0.146853E+01 -0.992053E+00
 -0.577300E+00 -0.314101E+00 -0.192662E+00 -0.109925E+00 -0.413051E-01 -0.193232E-01
 -0.413051E-01 -0.109925E+00 -0.192662E+00 -0.314101E+00 -0.577300E+00 -0.992053E+00
 -0.146853E+01 -0.189866E+01 -0.219125E+01 -0.295236E+01 -0.295236E+01 -0.272570E+01